% Model:              Gofar_3seg_1e24_1300mpt_GSRM.mph
% Version:            COMSOL 4.2.1.166
% Date:               Nov 8 2019, 17:12
% Dimension:          3
% Nodes:              9061
% Expressions:        3
% Description:        Temperature, differential stress (Pa), overburned pressure
% x             y              z              T (degC)       tau            pressure (Pa)
77500           15000          -36500         1300.000473    1.744837e5     8.2271e8
77500           15000          -35500         1300.000728    1.764848e5     8.0017e8
77500           15000          -35000         1300.000856    1.779185e5     7.889e8
77500           15000          -34500         1300.000242    1.797345e5     7.7763e8
77500           15000          -33500         1299.999014    1.824358e5     7.5509e8
77500           15000          -34000         1299.999628    1.810921e5     7.6636e8
77500           15251.008123   -35000         1300.000805    1.77689e5      7.889e8
77500           15251.008123   -34500         1300.000226    1.794715e5     7.7763e8
77500           15251.008123   -34000         1299.999647    1.808419e5     7.6636e8
77500           15502.016245   -36500         1300.000411    1.740786e5     8.2271e8
77500           15502.016245   -33500         1299.99912     1.819669e5     7.5509e8
77500           15502.016245   -2300          829.395673     2.286939e7     5.1842e7
77500           15502.016245   -1300          551.88979      3.163709e7     2.9302e7
77500           15502.016245   -57500         1299.999933    1.437109e5     1.29605e9
77500           15502.016245   -31500         1299.996942    1.872786e5     7.1001e8
77500           15502.016245   -26500         1300.00028     2.052509e5     5.9731e8
77500           15502.016245   -82500         1299.99985     1.110528e5     1.85955e9
77500           15753.024368   -36500         1300.00038     1.738822e5     8.2271e8
77500           15753.024368   -34000         1299.999684    1.803649e5     7.6636e8
77500           15753.024368   -36000         1300.000488    1.749097e5     8.1144e8
77500           15753.024368   -35000         1300.000704    1.772482e5     7.889e8
77500           15753.024368   -33500         1299.999174    1.817438e5     7.5509e8
77500           15753.024368   -33000         1299.998663    1.831063e5     7.4382e8
77500           15753.024368   -31500         1299.997133    1.870946e5     7.1001e8
77500           15753.024368   -29000         1299.996969    1.961995e5     6.5366e8
77500           15753.024368   -2800          955.83787      8.171281e6     6.3112e7
77500           15753.024368   -1800          742.726533     3.090163e7     4.0572e7
77500           15753.024368   -800           389.273694     2.721182e7     1.8032e7
77500           15753.024368   -95000         1299.999957    99497.920349   2.1413e9
77500           15753.024368   -70000         1299.999829    1.339708e5     1.5778e9
77500           15753.024368   -31000         1299.996622    1.883912e5     6.9874e8
77500           16004.03249    -36500         1300.000349    1.736901e5     8.2271e8
77500           16004.03249    -33500         1299.999227    1.815286e5     7.5509e8
77500           17008.06498    -10600         1295.572769    3.580747e5     2.38924e8
77500           17008.06498    -82500         1299.999858    1.106157e5     1.85955e9
77500           17008.06498    -57500         1299.999927    1.430178e5     1.29605e9
77500           17008.06498    -43000         1299.999782    1.614035e5     9.6922e8
77500           17008.06498    -36500         1300.000225    1.72966e5      8.2271e8
77500           17008.06498    -31500         1299.998088    1.862803e5     7.1001e8
77500           17008.06498    -26500         1300.000918    2.044339e5     5.9731e8
77500           17008.06498    -21500         1299.930153    2.300175e5     4.8461e8
77500           17008.06498    -16600         1299.621179    2.687639e5     3.74164e8
77500           17008.06498    -14600         1299.177978    2.913761e5     3.29084e8
77500           17008.06498    -12600         1298.108906    3.202132e5     2.84004e8
77500           17008.06498    -5300          1249.262882    6.026057e5     1.19462e8
77500           17008.06498    -4300          1217.058861    7.75531e5      9.6922e7
77500           17008.06498    -3300          1157.615876    1.267709e6     7.4382e7
77500           17008.06498    -2300          1029.007355    4.117768e6     5.1842e7
77500           17008.06498    -1300          736.406189     2.815293e7     2.9302e7
77500           18012.097471   -10600         1297.41014     3.483221e5     2.38924e8
77500           18012.097471   -9300          1295.847439    3.68837e5      2.09622e8
77500           18012.097471   -82500         1299.99986     1.100779e5     1.85955e9
77500           18012.097471   -57500         1299.999926    1.408657e5     1.29605e9
77500           18012.097471   -43000         1299.999806    1.577275e5     9.6922e8
77500           18012.097471   -36500         1300.000156    1.68581e5      8.2271e8
77500           18012.097471   -31500         1299.998544    1.81741e5      7.1001e8
77500           18012.097471   -26500         1300.0014      2.008426e5     5.9731e8
77500           18012.097471   -21500         1299.956271    2.282467e5     4.8461e8
77500           18012.097471   -18600         1299.88439     2.498319e5     4.19244e8
77500           18012.097471   -16600         1299.749856    2.696274e5     3.74164e8
77500           18012.097471   -14600         1299.452111    2.926848e5     3.29084e8
77500           18012.097471   -12600         1298.767098    3.190775e5     2.84004e8
77500           18012.097471   -8300          1293.672561    3.817383e5     1.87082e8
77500           18012.097471   -7300          1290.237114    3.961481e5     1.64542e8
77500           18012.097471   -6300          1284.758251    4.134266e5     1.42002e8
77500           18012.097471   -5300          1275.724294    4.450664e5     1.19462e8
77500           18012.097471   -4300          1259.218913    5.28983e5      9.6922e7
77500           18012.097471   -3300          1221.613482    7.818302e5     7.4382e7
77500           18012.097471   -2300          1113.746687    2.08232e6      5.1842e7
77500           18012.097471   -1300          815.500697     2.245645e7     2.9302e7
77500           18263.105593   -48000         1299.999932    1.502588e5     1.08192e9
77500           18263.105593   -29000         1299.998889    1.909286e5     6.5366e8
77500           18263.105593   -17600         1299.837257    2.616552e5     3.96704e8
77500           18263.105593   -13600         1299.199165    3.094716e5     3.06544e8
77500           18263.105593   -11600         1298.248278    3.382911e5     2.61464e8
77500           18263.105593   -9800          1296.742106    3.628485e5     2.20892e8
77500           18263.105593   -8800          1295.109369    3.749281e5     1.98352e8
77500           18263.105593   -7800          1292.567883    3.873968e5     1.75812e8
77500           18263.105593   -5800          1282.170437    4.198203e5     1.30732e8
77500           18263.105593   -4800          1271.176409    4.715958e5     1.08192e8
77500           18263.105593   -3800          1248.68625     6.178194e5     8.5652e7
77500           18263.105593   -2800          1188.505028    1.1035e6       6.3112e7
77500           18263.105593   -1800          1009.408181    5.441149e6     4.0572e7
77500           18263.105593   -70000         1299.999836    1.315661e5     1.5778e9
77500           18263.105593   -34000         1299.999831    1.745214e5     7.6636e8
77500           18263.105593   -24000         1299.990485    2.152427e5     5.4096e8
77500           18263.105593   -19600         1299.925662    2.426698e5     4.41784e8
77500           18263.105593   -15600         1299.641847    2.839781e5     3.51624e8
77500           18263.105593   -6800          1288.57555     4.000387e5     1.53272e8
77500           18263.105593   -95000         1299.99996     98699.568807   2.1413e9
77500           18263.105593   -39000         1299.999854    1.630734e5     8.7906e8
77500           19518.146206   -10600         1297.893392    3.509278e5     2.38924e8
77500           19518.146206   -9300          1296.805181    3.708925e5     2.09622e8
77500           19518.146206   -8300          1295.443398    3.832824e5     1.87082e8
77500           19518.146206   -57500         1299.99993     1.402343e5     1.29605e9
77500           19518.146206   -31500         1299.998767    1.811482e5     7.1001e8
77500           19518.146206   -26500         1300.002207    2.005821e5     5.9731e8
77500           19518.146206   -14600         1299.537829    2.945487e5     3.29084e8
77500           19518.146206   -12600         1298.930068    3.213231e5     2.84004e8
77500           19518.146206   -7300          1293.499479    3.961666e5     1.64542e8
77500           19518.146206   -6300          1290.666039    4.08395e5      1.42002e8
77500           19518.146206   -5300          1286.308468    4.248015e5     1.19462e8
77500           19518.146206   -4300          1278.424204    4.670911e5     9.6922e7
77500           19518.146206   -3300          1256.856439    6.06493e5      7.4382e7
77500           19518.146206   -2300          1168.353       1.370967e6     5.1842e7
77500           19518.146206   -1300          868.267824     1.709817e7     2.9302e7
77500           19518.146206   -82500         1299.999859    1.096622e5     1.85955e9
77500           19518.146206   -43000         1299.999822    1.568077e5     9.6922e8
77500           19518.146206   -36500         1300.000135    1.677949e5     8.2271e8
77500           19518.146206   -21500         1299.971998    2.285732e5     4.8461e8
77500           19518.146206   -18600         1299.917902    2.506569e5     4.19244e8
77500           19518.146206   -16600         1299.804649    2.709718e5     3.74164e8
77500           20522.177925   -9300          1294.817567    3.75671e5      2.09622e8
77500           20522.177925   -57500         1299.999938    1.387641e5     1.29605e9
77500           20522.177925   -26500         1300.003417    1.997917e5     5.9731e8
77500           20522.177925   -14600         1299.392441    2.972874e5     3.29084e8
77500           20522.177925   -12600         1298.462675    3.238177e5     2.84004e8
77500           20522.177925   -10600         1296.686458    3.540474e5     2.38924e8
77500           20522.177925   -8300          1292.546854    3.915937e5     1.87082e8
77500           20522.177925   -7300          1289.418655    4.120646e5     1.64542e8
77500           20522.177925   -6300          1285.073894    4.370282e5     1.42002e8
77500           20522.177925   -5300          1278.822252    4.680046e5     1.19462e8
77500           20522.177925   -4300          1268.70938     5.13713e5      9.6922e7
77500           20522.177925   -3300          1244.958065    6.509205e5     7.4382e7
77500           20522.177925   -2300          1155.609621    1.495078e6     5.1842e7
77500           20522.177925   -1300          858.470928     1.797897e7     2.9302e7
77500           20522.177925   -82500         1299.999855    1.09606e5      1.85955e9
77500           20522.177925   -43000         1299.999814    1.54441e5      9.6922e8
77500           20522.177925   -36500         1300.00019     1.653602e5     8.2271e8
77500           20522.177925   -31500         1299.998638    1.791607e5     7.1001e8
77500           20522.177925   -21500         1299.974651    2.295796e5     4.8461e8
77500           20522.177925   -18600         1299.915085    2.530628e5     4.19244e8
77500           20522.177925   -16600         1299.770581    2.73767e5      3.74164e8
77500           20773.185663   -9800          1294.784612    3.689554e5     2.20892e8
77500           20773.185663   -70000         1299.999834    1.297359e5     1.5778e9
77500           20773.185663   -48000         1299.999949    1.469057e5     1.08192e9
77500           20773.185663   -29000         1299.999484    1.89234e5      6.5366e8
77500           20773.185663   -24000         1299.997051    2.160588e5     5.4096e8
77500           20773.185663   -15600         1299.575591    2.886611e5     3.51624e8
77500           20773.185663   -13600         1298.874364    3.137922e5     3.06544e8
77500           20773.185663   -11600         1297.285192    3.424595e5     2.61464e8
77500           20773.185663   -8800          1292.366592    3.842376e5     1.98352e8
77500           20773.185663   -7800          1288.999542    4.039375e5     1.75812e8
77500           20773.185663   -6800          1284.323412    4.287989e5     1.53272e8
77500           20773.185663   -5800          1277.715074    4.618024e5     1.30732e8
77500           20773.185663   -4800          1267.811124    5.10612e5      1.08192e8
77500           20773.185663   -3800          1249.720774    6.224703e5     8.5652e7
77500           20773.185663   -2800          1199.455979    1.027742e6     6.3112e7
77500           20773.185663   -1800          1030.326144    4.456495e6     4.0572e7
77500           20773.185663   -95000         1299.999958    98411.347276   2.1413e9
77500           20773.185663   -39000         1299.999864    1.596149e5     8.7906e8
77500           20773.185663   -34000         1299.999893    1.71456e5      7.6636e8
77500           20773.185663   -19600         1299.944555    2.460205e5     4.41784e8
77500           20773.185663   -17600         1299.8457      2.660677e5     3.96704e8
77500           22028.224349   -10600         1292.582401    3.585679e5     2.38924e8
77500           22028.224349   -9300          1287.896983    3.852422e5     2.09622e8
77500           22028.224349   -1300          776.313114     2.57091e7      2.9302e7
77500           22028.224349   -82500         1299.999844    1.092132e5     1.85955e9
77500           22028.224349   -57500         1299.999959    1.381958e5     1.29605e9
77500           22028.224349   -43000         1299.999772    1.537607e5     9.6922e8
77500           22028.224349   -36500         1300.000377    1.649787e5     8.2271e8
77500           22028.224349   -31500         1299.998028    1.791145e5     7.1001e8
77500           22028.224349   -26500         1300.006237    2.003121e5     5.9731e8
77500           22028.224349   -21500         1299.966882    2.305985e5     4.8461e8
77500           22028.224349   -16600         1299.613582    2.755278e5     3.74164e8
77500           22028.224349   -14600         1298.870558    2.986966e5     3.29084e8
77500           22028.224349   -12600         1296.897527    3.255476e5     2.84004e8
77500           22028.224349   -8300          1282.086385    4.101756e5     1.87082e8
77500           22028.224349   -7300          1273.91382     4.470664e5     1.64542e8
77500           22028.224349   -6300          1262.389672    5.025768e5     1.42002e8
77500           22028.224349   -5300          1245.779429    5.895771e5     1.19462e8
77500           22028.224349   -4300          1220.359617    7.422695e5     9.6922e7
77500           22028.224349   -3300          1174.019989    1.123012e6     7.4382e7
77500           22028.224349   -2300          1062.77317     3.129604e6     5.1842e7
77500           22028.224349   -300           201.300621     2.27044e7      6.762e6
77500           22028.224349   -18600         1299.873125    2.550514e5     4.19244e8
77500           22279.232086   0              0              1.999971e7     0
77500           22530.239823   -300           193.806984     2.270443e7     6.762e6
77500           22530.239823   -100           64.602328      2.09013e7      2.254e6
77500           22530.239823   0              0              1.999973e7     0
77500           22777.215841   0              0              1.999974e7     0
77500           23024.191858   -57500         1299.999977    1.365592e5     1.29605e9
77500           23024.191858   -36500         1300.00057     1.621711e5     8.2271e8
77500           23024.191858   -31500         1299.997356    1.76732e5      7.1001e8
77500           23024.191858   -26500         1300.009105    1.992053e5     5.9731e8
77500           23024.191858   -16600         1299.409634    2.795165e5     3.74164e8
77500           23024.191858   -12600         1294.852069    3.372761e5     2.84004e8
77500           23024.191858   -5300          1200.747217    8.260738e5     1.19462e8
77500           23024.191858   -3300          1088.383946    2.184937e6     7.4382e7
77500           23024.191858   -2300          958.331676     7.559252e6     5.1842e7
77500           23024.191858   -1300          683.359831     3.017711e7     2.9302e7
77500           23024.191858   -300           175.534261     2.270442e7     6.762e6
77500           23271.167876   -11600         1290.436157    3.584956e5     2.61464e8
77500           23271.167876   -9800          1279.570885    4.146094e5     2.20892e8
77500           23271.167876   -8800          1268.949939    4.617227e5     1.98352e8
77500           23271.167876   -1800          810.436985     2.364454e7     4.0572e7
77500           23271.167876   -800           443.72773      2.72104e7      1.8032e7
77500           23271.167876   -70000         1299.999822    1.279634e5     1.5778e9
77500           23271.167876   -48000         1299.999974    1.437313e5     1.08192e9
77500           23271.167876   -39000         1299.999862    1.564298e5     8.7906e8
77500           23271.167876   -36500         1300.000635    1.621675e5     8.2271e8
77500           23271.167876   -36000         1300.00079     1.632677e5     8.1144e8
77500           23271.167876   -34000         1299.999962    1.688224e5     7.6636e8
77500           23271.167876   -33500         1299.999394    1.704866e5     7.5509e8
77500           23271.167876   -29000         1299.999603    1.885873e5     6.5366e8
77500           23271.167876   -24000         1299.99739     2.178875e5     5.4096e8
77500           23271.167876   -19600         1299.885426    2.516645e5     4.41784e8
77500           23271.167876   -17600         1299.624593    2.713987e5     3.96704e8
77500           23271.167876   -15600         1298.8113      2.936737e5     3.51624e8
77500           23271.167876   -13600         1296.467933    3.206199e5     3.06544e8
77500           23271.167876   -7800          1253.823775    5.315376e5     1.75812e8
77500           23271.167876   -4800          1161.222332    1.15206e6      1.08192e8
77500           23271.167876   -3800          1100.166335    1.9729e6       8.5652e7
77500           23271.167876   -2800          1000.254262    5.082123e6     6.3112e7
77500           23271.167876   -400           221.863865     2.360596e7     9.016e6
77500           23271.167876   -300           166.397899     2.270441e7     6.762e6
77500           23271.167876   -200           110.931933     2.180285e7     4.508e6
77500           23271.167876   0              0              1.999972e7     0
77500           23271.167876   -5800          1202.954341    8.148341e5     1.30732e8
77500           23518.143894   -300           157.261537     2.27044e7      6.762e6
77500           24012.095929   -36500         1300.000831    1.621969e5     8.2271e8
77500           24259.071947   -36500         1300.000897    1.622201e5     8.2271e8
77500           24259.071947   -36000         1300.001104    1.633275e5     8.1144e8
77500           24259.071947   -34000         1299.999994    1.692508e5     7.6636e8
77500           24259.071947   -35000         1300.001519    1.656574e5     7.889e8
77500           24506.047965   -82500         1299.999814    1.085467e5     1.85955e9
77500           24506.047965   -57500         1300.000012    1.360805e5     1.29605e9
77500           24506.047965   -36500         1300.000962    1.622499e5     8.2271e8
77500           24506.047965   -35000         1300.001624    1.657498e5     7.889e8
77500           24506.047965   -33500         1299.999191    1.710514e5     7.5509e8
77500           24506.047965   -31500         1299.995948    1.773377e5     7.1001e8
77500           24506.047965   -26500         1300.014888    2.00629e5      5.9731e8
77500           24506.047965   -16600         1298.954791    2.82651e5      3.74164e8
77500           24506.047965   -12600         1290.280843    3.479749e5     2.84004e8
77500           24506.047965   -5300          1098.693402    2.030908e6     1.19462e8
77500           24506.047965   -3300          902.413894     1.333592e7     7.4382e7
77500           24506.047965   -2300          737.843644     3.421622e7     5.1842e7
77500           24506.047965   -1300          486.657795     3.170465e7     2.9302e7
77500           24506.047965   -300           120.71609      2.270436e7     6.762e6
77500           24506.047965   -35500         1300.001403    1.644512e5     8.0017e8
77500           24506.047965   -34500         1300.000813    1.677024e5     7.7763e8
77500           24753.023982   -35500         1300.001495    1.644894e5     8.0017e8
77500           24753.023982   -35000         1300.001729    1.658533e5     7.889e8
77500           24753.023982   -34500         1300.000869    1.678659e5     7.7763e8
77500           24753.023982   -34000         1300.00001     1.695544e5     7.6636e8
77500           25000          -36500         1300.001093    1.623296e5     8.2271e8
77500           25000          -35500         1300.001587    1.645337e5     8.0017e8
77500           25000          -35000         1300.001834    1.659678e5     7.889e8
77500           25000          -34500         1300.000926    1.680445e5     7.7763e8
77500           25000          -34000         1300.000018    1.697278e5     7.6636e8
77500           25000          -33500         1299.99911     1.713747e5     7.5509e8
77500           15000          -37500         1300.000218    1.724524e5     8.4525e8
77500           15000          -37000         1300.000345    1.734717e5     8.3398e8
77500           15000          -36000         1300.0006      1.754882e5     8.1144e8
77500           15000          -33000         1299.998401    1.837654e5     7.4382e8
77500           15000          -32500         1299.997787    1.850805e5     7.3255e8
77500           15000          -1e5           1300           95290.145175   2.254e9
77500           15000          -97500         1299.999978    97534.530053   2.19765e9
77500           15000          -95000         1299.999956    99856.67068    2.1413e9
77500           15000          -57500         1299.999934    1.439455e5     1.29605e9
77500           15000          -47000         1299.999874    1.571379e5     1.05938e9
77500           15000          -46000         1299.999832    1.585907e5     1.03684e9
77500           15000          -45000         1299.99979     1.600403e5     1.0143e9
77500           15000          -44000         1299.999748    1.614839e5     9.9176e8
77500           15000          -43000         1299.999706    1.629191e5     9.6922e8
77500           15000          -38500         1299.999962    1.70393e5      8.6779e8
77500           15000          -38000         1300.00009     1.71426e5      8.5652e8
77500           15000          -32000         1299.997173    1.86381e5      7.2128e8
77500           15000          -31500         1299.996559    1.876668e5     7.1001e8
77500           15000          -31000         1299.995946    1.889379e5     6.9874e8
77500           15000          -30500         1299.995332    1.901944e5     6.8747e8
77500           15000          -30000         1299.994718    1.923321e5     6.762e8
77500           15000          -29500         1299.995482    1.950782e5     6.6493e8
77500           15000          -29000         1299.996247    1.96902e5      6.5366e8
77500           15000          -3300          948.616061     8.98616e6      7.4382e7
77500           15000          -2700          845.144463     2.143866e7     6.0858e7
77500           15000          -2600          824.572959     2.444208e7     5.8604e7
77500           15000          -2400          783.42995      2.981421e7     5.4096e7
77500           15000          -2300          762.858445     3.188266e7     5.1842e7
77500           15000          -1700          610.818385     3.489198e7     3.8318e7
77500           15000          -1600          580.70987      3.422067e7     3.6064e7
77500           15000          -1400          520.492839     3.258288e7     3.1556e7
77500           15000          -1300          490.384324     3.170414e7     2.9302e7
77500           15000          -700           280.041144     2.631049e7     1.5778e7
77500           15000          -600           240.035266     2.540895e7     1.3524e7
77500           15000          -500           200.029389     2.450741e7     1.127e7
77500           15000          -400           160.023511     2.360587e7     9.016e6
77500           15000          -300           120.017633     2.270433e7     6.762e6
77500           15000          -200           80.011755      2.180278e7     4.508e6
77500           15000          -100           40.005878      2.090123e7     2.254e6
77500           15000          0              0              1.999967e7     0
77500           15000          -92500         1299.999935    1.021984e5     2.08495e9
77500           15000          -90000         1299.999913    1.045223e5     2.0286e9
77500           15000          -87500         1299.999891    1.068053e5     1.97225e9
77500           15000          -85000         1299.999869    1.090341e5     1.9159e9
77500           15000          -82500         1299.999847    1.112016e5     1.85955e9
77500           15000          -60000         1299.999913    1.420449e5     1.3524e9
77500           15000          -52500         1299.999978    1.476989e5     1.18335e9
77500           15000          -50000         1300           1.511704e5     1.127e9
77500           15000          -49000         1299.999958    1.542376e5     1.10446e9
77500           15000          -48000         1299.999916    1.556855e5     1.08192e9
77500           15000          -28500         1299.997011    1.98699e5      6.4239e8
77500           15000          -28000         1299.997775    2.00469e5      6.3112e8
77500           15000          -27500         1299.998539    2.022122e5     6.1985e8
77500           15000          -27000         1299.999303    2.039288e5     6.0858e8
77500           15000          -26500         1300.000067    2.056189e5     5.9731e8
77500           15000          -3400          962.535088     7.872059e6     7.6636e7
77500           15000          -3100          920.778005     1.163476e7     6.9874e7
77500           15000          -3000          906.858977     1.312738e7     6.762e7
77500           15000          -2900          886.287472     1.563558e7     6.5366e7
77500           15000          -2800          865.715968     1.845432e7     6.3112e7
77500           15000          -2500          804.001454     2.729047e7     5.635e7
77500           15000          -2200          742.286941     3.342707e7     4.9588e7
77500           15000          -2100          721.715436     3.444391e7     4.7334e7
77500           15000          -2000          701.143932     3.497987e7     4.508e7
77500           15000          -1900          671.035416     3.544715e7     4.2826e7
77500           15000          -1800          640.926901     3.535028e7     4.0572e7
77500           15000          -1500          550.601354     3.34321e7      3.381e7
77500           15000          -1200          460.275808     3.081191e7     2.7048e7
77500           15000          -1100          430.167293     2.991393e7     2.4794e7
77500           15000          -1000          400.058777     2.901416e7     2.254e7
77500           15000          -900           360.0529       2.811347e7     2.0286e7
77500           15000          -800           320.047022     2.721201e7     1.8032e7
77500           15000          -80000         1299.999826    1.133049e5     1.8032e9
77500           15000          -77500         1299.999804    1.153436e5     1.74685e9
77500           15000          -75000         1299.999782    1.241513e5     1.6905e9
77500           15000          -72500         1299.999804    1.326993e5     1.63415e9
77500           15000          -70000         1299.999825    1.344962e5     1.5778e9
77500           15000          -67500         1299.999847    1.363484e5     1.52145e9
77500           15000          -65000         1299.999869    1.382346e5     1.4651e9
77500           15000          -62500         1299.999891    1.401379e5     1.40875e9
77500           15000          -55000         1299.999956    1.458321e5     1.2397e9
77500           15000          -26000         1300.000832    2.072831e5     5.8604e8
77500           15000          -25500         1300.001596    2.089217e5     5.7477e8
77500           15000          -25000         1300.00236     2.118618e5     5.635e8
77500           15000          -24500         1299.980116    2.158438e5     5.5223e8
77500           15000          -24000         1299.957872    2.184504e5     5.4096e8
77500           15000          -23500         1299.935628    2.210077e5     5.2969e8
77500           15000          -23000         1299.913384    2.23516e5      5.1842e8
77500           15000          -22500         1299.891141    2.259758e5     5.0715e8
77500           15000          -21500         1299.846653    2.307536e5     4.8461e8
77500           15000          -16600         1299.179526    2.693065e5     3.74164e8
77500           15000          -16200         1299.076608    2.72461e5      3.65148e8
77500           15000          -16000         1299.02515     2.754721e5     3.6064e8
77500           15000          -15800         1298.906662    2.791133e5     3.56132e8
77500           15000          -15600         1298.788174    2.812848e5     3.51624e8
77500           15000          -15400         1298.669686    2.834409e5     3.47116e8