% Model:              Gofar_3seg_1e24_1300mpt_GSRM.mph
% Version:            COMSOL 4.2.1.166
% Date:               Nov 8 2019, 17:10
% Dimension:          3
% Nodes:              44421
% Expressions:        3
% Description:        Temperature, differential stress (Pa), overburned pressure
% x             y              z              T (degC)       tau            pressure (Pa)
-47500          -25523.412563  -1e5           1300           1.271364e5     2.254e9
-47500          -25523.412563  -97500         1299.999989    1.268442e5     2.19765e9
-47500          -26524.330702  -97500         1299.999991    1.272337e5     2.19765e9
-47500          -26023.871633  -97500         1299.99999     1.270389e5     2.19765e9
-47500          -25773.642098  -97500         1299.999989    1.269416e5     2.19765e9
-47500          -25273.183028  -1e5           1300           1.270406e5     2.254e9
-47500          -25273.183028  -97500         1299.999988    1.267468e5     2.19765e9
-47500          -25273.183028  -95000         1299.999976    1.265203e5     2.1413e9
-47500          -25022.953493  -1e5           1300           1.269604e5     2.254e9
-47500          -25022.953493  -97500         1299.999988    1.267453e5     2.19765e9
-47500          -25022.953493  -95000         1299.999975    1.266016e5     2.1413e9
-47500          -24772.723958  -95000         1299.999973    1.266701e5     2.1413e9
-47500          -24772.723958  -1e5           1300           1.268661e5     2.254e9
-47500          -24772.723958  -97500         1299.999987    1.267302e5     2.19765e9
-47500          -24522.494423  -1e5           1300           1.267561e5     2.254e9
-47500          -500.45907     -55000         1300.000915    1.680429e5     1.2397e9
-47500          -500.45907     -52500         1300.001375    1.70283e5      1.18335e9
-47500          -500.45907     -49000         1300.001065    1.874369e5     1.10446e9
-47500          -500.45907     -50000         1300.001836    1.791799e5     1.127e9
-47500          -250.229535    -55000         1300.000898    1.680799e5     1.2397e9
-47500          -250.229535    -52500         1300.001358    1.703181e5     1.18335e9
-47500          -250.229535    -49000         1300.001054    1.874863e5     1.10446e9
-47500          -250.229535    -50000         1300.001817    1.792225e5     1.127e9
-47500          0              -55000         1300.000881    1.681182e5     1.2397e9
-47500          0              -52500         1300.00134     1.703543e5     1.18335e9
-47500          0              -50000         1300.001799    1.792679e5     1.127e9
-47500          0              -49000         1300.001043    1.8754e5       1.10446e9
-47500          -50000         -7200          1299.98958     3.116933e5     1.62288e8
-47500          -50000         -7100          1299.988864    3.12047e5      1.60034e8
-47500          -50000         -7000          1299.988148    3.159715e5     1.5778e8
-47500          -50000         -6900          1299.986663    3.195535e5     1.55526e8
-47500          -50000         -6800          1299.985178    3.195663e5     1.53272e8
-47500          -50000         -6700          1299.983693    3.195793e5     1.51018e8
-47500          -50000         -6200          1299.976267    3.196466e5     1.39748e8
-47500          -50000         -7600          1299.992444    3.102904e5     1.71304e8
-47500          -50000         -7500          1299.991728    3.106392e5     1.6905e8
-47500          -50000         -7400          1299.991012    3.109893e5     1.66796e8
-47500          -50000         -6600          1299.982208    3.195924e5     1.48764e8
-47500          -50000         -6500          1299.980722    3.196057e5     1.4651e8
-47500          -50000         -6400          1299.979237    3.196192e5     1.44256e8
-47500          -50000         -19200         1299.999994    2.000469e5     4.32768e8
-47500          -50000         -19000         1299.999994    2.006028e5     4.2826e8
-47500          -50000         -18800         1299.999994    2.011653e5     4.23752e8
-47500          -50000         -18400         1299.999994    2.023082e5     4.14736e8
-47500          -50000         -18200         1299.999994    2.028877e5     4.10228e8
-47500          -50000         -18000         1299.999994    2.074834e5     4.0572e8
-47500          -50000         -17800         1299.999993    2.1209e5       4.01212e8
-47500          -50000         -17600         1299.999992    2.126936e5     3.96704e8
-47500          -49754.359872  -7200          1299.988155    3.113375e5     1.62288e8
-47500          -49754.359872  -7100          1299.987319    3.116938e5     1.60034e8
-47500          -49754.359872  -7000          1299.986484    3.155316e5     1.5778e8
-47500          -49754.359872  -6800          1299.982541    3.190391e5     1.53272e8
-47500          -49754.359872  -6200          1299.970712    3.191254e5     1.39748e8
-47500          -49754.359872  -10800         1299.999326    2.687828e5     2.43432e8
-47500          -49754.359872  -9600          1299.998594    2.845709e5     2.16384e8
-47500          -49754.359872  -9400          1299.998363    2.856792e5     2.11876e8
-47500          -49754.359872  -8600          1299.996677    2.970722e5     1.93844e8
-47500          -49754.359872  -8400          1299.996064    2.980484e5     1.89336e8
-47500          -49754.359872  -7700          1299.992333    3.095742e5     1.73558e8
-47500          -49754.359872  -7600          1299.991497    3.099242e5     1.71304e8
-47500          -49754.359872  -7500          1299.990662    3.102755e5     1.6905e8
-47500          -49754.359872  -7400          1299.989826    3.106283e5     1.66796e8
-47500          -49754.359872  -7300          1299.98899     3.109822e5     1.64542e8
-47500          -49754.359872  -6900          1299.984512    3.190254e5     1.55526e8
-47500          -49754.359872  -6700          1299.980569    3.190531e5     1.51018e8
-47500          -49754.359872  -6600          1299.978598    3.190672e5     1.48764e8
-47500          -49754.359872  -6500          1299.976627    3.190815e5     1.4651e8
-47500          -49754.359872  -6400          1299.974655    3.19096e5      1.44256e8
-47500          -49754.359872  -5600          1299.934606    3.203887e5     1.26224e8
-47500          -49754.359872  -5400          1299.918523    3.191445e5     1.21716e8
-47500          -49754.359872  -28000         1299.999996    1.694078e5     6.3112e8
-47500          -49754.359872  -27000         1299.999996    1.705003e5     6.0858e8
-47500          -49754.359872  -23000         1299.999995    1.849702e5     5.1842e8
-47500          -49754.359872  -22000         1299.999995    1.861289e5     4.9588e8
-47500          -49754.359872  -19400         1299.999994    1.994382e5     4.37276e8
-47500          -49754.359872  -19200         1299.999994    1.999881e5     4.32768e8
-47500          -49754.359872  -19000         1299.999994    2.00545e5      4.2826e8
-47500          -49754.359872  -18800         1299.999994    2.011084e5     4.23752e8
-47500          -49754.359872  -18400         1299.999994    2.022533e5     4.14736e8
-47500          -49754.359872  -18200         1299.999994    2.028337e5     4.10228e8
-47500          -49754.359872  -18000         1299.999993    2.074156e5     4.0572e8
-47500          -49754.359872  -17200         1299.99999     2.138464e5     3.87688e8
-47500          -49754.359872  -16400         1299.999987    2.163873e5     3.69656e8
-47500          -49754.359872  -4600          1299.55985     3.014968e5     1.03684e8
-47500          -49754.359872  -18600         1299.999994    2.01678e5      4.19244e8
-47500          -49754.359872  -17800         1299.999993    2.120088e5     4.01212e8
-47500          -49754.359872  -17600         1299.999992    2.126138e5     3.96704e8
-47500          -49754.359872  -17400         1299.999991    2.132266e5     3.92196e8
-47500          -49754.359872  -12800         1299.999821    2.488263e5     2.88512e8
-47500          -49754.359872  -11200         1299.999461    2.674829e5     2.52448e8
-47500          -49508.719743  -7100          1299.985774    3.113407e5     1.60034e8
-47500          -49508.719743  -9800          1299.998749    2.831025e5     2.20892e8
-47500          -49508.719743  -8800          1299.997075    2.957764e5     1.98352e8
-47500          -49508.719743  -7400          1299.98864     3.102672e5     1.66796e8
-47500          -49508.719743  -7200          1299.98673     3.109817e5     1.62288e8
-47500          -49508.719743  -7000          1299.984819    3.150916e5     1.5778e8
-47500          -49508.719743  -6900          1299.982361    3.184969e5     1.55526e8
-47500          -49508.719743  -6800          1299.979904    3.185116e5     1.53272e8
-47500          -49508.719743  -6500          1299.972531    3.185569e5     1.4651e8
-47500          -49508.719743  -6200          1299.965158    3.186038e5     1.39748e8
-47500          -49508.719743  -5800          1299.940947    3.208295e5     1.30732e8
-47500          -49508.719743  -29000         1299.999996    1.683444e5     6.5366e8
-47500          -49508.719743  -24000         1299.999996    1.838242e5     5.4096e8
-47500          -49508.719743  -19600         1299.999994    1.988352e5     4.41784e8
-47500          -49508.719743  -19200         1299.999994    1.999293e5     4.32768e8
-47500          -49508.719743  -18800         1299.999994    2.010516e5     4.23752e8
-47500          -49508.719743  -18400         1299.999994    2.021983e5     4.14736e8
-47500          -49508.719743  -18200         1299.999993    2.027798e5     4.10228e8
-47500          -49508.719743  -17600         1299.999992    2.125341e5     3.96704e8
-47500          -49508.719743  -7800          1299.992462    3.088541e5     1.75812e8
-47500          -49508.719743  -7600          1299.990551    3.095579e5     1.71304e8
-47500          -49508.719743  -7500          1299.989596    3.099119e5     1.6905e8
-47500          -49508.719743  -19000         1299.999994    2.004872e5     4.2826e8
-47500          -49508.719743  -18000         1299.999993    2.073478e5     4.0572e8
-47500          -49508.719743  -17800         1299.999992    2.119277e5     4.01212e8
-47500          -49508.719743  -16400         1299.999987    2.163155e5     3.69656e8
-47500          -49508.719743  -11600         1299.99958     2.659065e5     2.61464e8
-47500          -49263.079615  -6900          1299.98021     3.17968e5      1.55526e8
-47500          -49263.079615  -7100          1299.984229    3.109876e5     1.60034e8
-47500          -49263.079615  -6700          1299.974323    3.179995e5     1.51018e8
-47500          -49263.079615  -19200         1299.999994    1.998705e5     4.32768e8
-47500          -49263.079615  -18200         1299.999993    2.027258e5     4.10228e8
-47500          -49263.079615  -17800         1299.999992    2.118466e5     4.01212e8
-47500          -49263.079615  -17400         1299.999991    2.130698e5     3.92196e8
-47500          -49263.079615  -7600          1299.989605    3.091916e5     1.71304e8
-47500          -49017.439487  -6900          1299.97806     3.174387e5     1.55526e8
-47500          -49017.439487  -30500         1299.999996    1.590132e5     6.8747e8
-47500          -49017.439487  -25500         1299.999996    1.721735e5     5.7477e8
-47500          -49017.439487  -20500         1299.999995    1.878537e5     4.6207e8
-47500          -49017.439487  -19800         1299.999994    1.981763e5     4.46292e8
-47500          -49017.439487  -18200         1299.999993    2.026718e5     4.10228e8
-47500          -49017.439487  -10200         1299.998966    2.699582e5     2.29908e8
-47500          -49017.439487  -9900          1299.99874     2.817964e5     2.23146e8
-47500          -49017.439487  -9100          1299.997593    2.863282e5     2.05114e8
-47500          -49017.439487  -8900          1299.997049    2.946275e5     2.00606e8
-47500          -49017.439487  -8100          1299.993839    2.986061e5     1.82574e8
-47500          -49017.439487  -7200          1299.983879    3.102703e5     1.62288e8
-47500          -49017.439487  -7100          1299.982684    3.106346e5     1.60034e8
-47500          -49017.439487  -6400          1299.960909    3.17524e5      1.44256e8
-47500          -49017.439487  -6100          1299.950619    3.175773e5     1.37494e8
-47500          -49017.439487  -5900          1299.934328    3.198101e5     1.32986e8
-47500          -49017.439487  -5100          1299.831441    3.146526e5     1.14954e8
-47500          -49017.439487  -29500         1299.999996    1.678128e5     6.6493e8
-47500          -49017.439487  -24500         1299.999996    1.83221e5      5.5223e8
-47500          -49017.439487  -19200         1299.999994    1.998117e5     4.32768e8
-47500          -49017.439487  -18400         1299.999993    2.020885e5     4.14736e8
-47500          -49017.439487  -17800         1299.999992    2.117654e5     4.01212e8
-47500          -49017.439487  -12200         1299.999736    2.506105e5     2.74988e8
-47500          -49017.439487  -11800         1299.999629    2.646649e5     2.65972e8
-47500          -49017.439487  -7900          1299.992243    3.077558e5     1.78066e8
-47500          -49017.439487  -7600          1299.988658    3.088253e5     1.71304e8
-47500          -49017.439487  -4900          1299.722501    3.061279e5     1.10446e8
-47500          -48526.15923   -14200         1299.999948    2.32729e5      3.20068e8
-47500          -48526.15923   -97500         1300           1.303121e5     2.19765e9
-47500          -48526.15923   -16200         1299.999985    2.166833e5     3.65148e8
-47500          -48526.15923   -15800         1299.99998     2.272676e5     3.56132e8
-47500          -48526.15923   -13800         1299.99992     2.443895e5     3.11052e8
-47500          -48034.878974  -14400         1299.999949    2.318332e5     3.24576e8
-47500          -48034.878974  -18400         1299.999993    2.018689e5     4.14736e8
-47500          -48034.878974  -18200         1299.999993    2.02456e5      4.10228e8
-47500          -48034.878974  -16400         1299.999986    2.158853e5     3.69656e8
-47500          -48034.878974  -15200         1299.999966    2.29062e5      3.42608e8
-47500          -48034.878974  -13600         1299.999889    2.447744e5     3.06544e8
-47500          -48034.878974  -7200          1299.978178    3.088487e5     1.62288e8
-47500          -48034.878974  -7100          1299.976505    3.092238e5     1.60034e8
-47500          -48034.878974  -6900          1299.969456    3.153193e5     1.55526e8
-47500          -48034.878974  -6800          1299.964081    3.153396e5     1.53272e8
-47500          -48034.878974  -17800         1299.999992    2.114406e5     4.01212e8
-47500          -48034.878974  -17600         1299.999991    2.120553e5     3.96704e8
-47500          -48034.878974  -15600         1299.999975    2.277115e5     3.51624e8
-47500          -47789.238846  -90000         1300           1.278801e5     2.0286e9
-47500          -47789.238846  -15200         1299.999965    2.289573e5     3.42608e8
-47500          -47789.238846  -14800         1299.999956    2.303363e5     3.33592e8
-47500          -47789.238846  -13200         1299.999835    2.460842e5     2.97528e8
-47500          -47789.238846  -16800         1299.999987    2.145108e5     3.78672e8
-47500          -47293.370474  -90000         1300           1.279323e5     2.0286e9
-47500          -47293.370474  -15200         1299.999964    2.296227e5     3.42608e8
-47500          -47293.370474  -14800         1299.999954    2.310743e5     3.33592e8
-47500          -47293.370474  -13200         1299.99983     2.468349e5     2.97528e8
-47500          -47293.370474  -16800         1299.999987    2.15105e5      3.78672e8
-47500          -47043.142231  -15600         1299.999973    2.282026e5     3.51624e8
-47500          -46542.685745  -13800         1299.999907    2.445743e5     3.11052e8
-47500          -46542.685745  -16200         1299.999984    2.171928e5     3.65148e8
-47500          -46542.685745  -14200         1299.999938    2.333068e5     3.20068e8
-47500          -46542.685745  -15800         1299.999978    2.275145e5     3.56132e8
-47500          -46042.229259  -100           87.71395       2.090132e7     2.254e6
-47500          -45541.772773  -200           174.975445     2.180289e7     4.508e6
-47500          -45291.54453   -400           349.498434     2.3606e7       9.016e6
-47500          -44791.086752  -400           348.112971     2.360597e7     9.016e6
-47500          -44040.398147  -100           86.328487      2.090128e7     2.254e6
-47500          -43539.939077  -16200         1299.999979    2.156092e5     3.65148e8
-47500          -43539.939077  -15800         1299.999973    2.259296e5     3.56132e8
-47500          -43539.939077  -14200         1299.999928    2.307686e5     3.20068e8
-47500          -43539.939077  -13800         1299.999895    2.421424e5     3.11052e8
-47500          -43539.939077  -12200         1299.999679    2.470532e5     2.74988e8
-47500          -43539.939077  -11800         1299.999576    2.606947e5     2.65972e8
-47500          -43039.480008  -15600         1299.999966    2.264534e5     3.51624e8
-47500          -43039.480008  -16400         1299.999979    2.150007e5     3.69656e8
-47500          -43039.480008  -15200         1299.999954    2.276452e5     3.42608e8
-47500          -43039.480008  -14400         1299.999931    2.300911e5     3.24576e8
-47500          -43039.480008  -13600         1299.999865    2.426029e5     3.06544e8
-47500          -43039.480008  -13200         1299.999809    2.438158e5     2.97528e8
-47500          -43039.480008  -12400         1299.999699    2.463007e5     2.79496e8
-47500          -42789.250473  -16800         1299.99998     2.138063e5     3.78672e8
-47500          -42789.250473  -15200         1299.999954    2.276153e5     3.42608e8
-47500          -42789.250473  -14800         1299.999942    2.288298e5     3.33592e8
-47500          -42789.250473  -13200         1299.999807    2.437503e5     2.97528e8
-47500          -42789.250473  -12800         1299.999752    2.449859e5     2.88512e8
-47500          -42789.250473  -11200         1299.999339    2.616987e5     2.52448e8
-47500          -42288.791403  -16800         1299.999979    2.135033e5     3.78672e8
-47500          -42288.791403  -15200         1299.999952    2.271143e5     3.42608e8
-47500          -42288.791403  -14800         1299.99994     2.282748e5     3.33592e8
-47500          -42288.791403  -13200         1299.999803    2.429502e5     2.97528e8
-47500          -42288.791403  -12800         1299.999747    2.441149e5     2.88512e8
-47500          -42288.791403  -11200         1299.999331    2.605275e5     2.52448e8
-47500          -42038.561868  -14400         1299.999927    2.293873e5     3.24576e8
-47500          -42038.561868  -13600         1299.999859    2.416622e5     3.06544e8
-47500          -42038.561868  -15600         1299.999963    2.259026e5     3.51624e8
-47500          -42038.561868  -15200         1299.999951    2.270432e5     3.42608e8
-47500          -41788.332333  -13800         1299.999886    2.409509e5     3.11052e8
-47500          -41538.102798  -16200         1299.999974    2.151533e5     3.65148e8
-47500          -41538.102798  -15800         1299.999967    2.251933e5     3.56132e8
-47500          -41538.102798  -14200         1299.999919    2.298524e5     3.20068e8
-47500          -41538.102798  -13800         1299.999885    2.408052e5     3.11052e8
-47500          -41538.102798  -13200         1299.999799    2.425306e5     2.97528e8
-47500          -41538.102798  -12200         1299.999656    2.455045e5     2.74988e8
-47500          -41538.102798  -11800         1299.99955     2.584574e5     2.65972e8
-47500          -41037.643728  -14200         1299.999917    2.297207e5     3.20068e8
-47500          -41037.643728  -13800         1299.999882    2.405137e5     3.11052e8
-47500          -40537.184658  -14400         1299.999921    2.289863e5     3.24576e8
-47500          -40537.184658  -13600         1299.999851    2.408e5        3.06544e8
-47500          -40286.955123  -13200         1299.999791    2.418326e5     2.97528e8
-47500          -40286.955123  -14800         1299.999932    2.277242e5     3.33592e8
-47500          -39786.496054  -13200         1299.999789    2.409658e5     2.97528e8
-47500          -39786.496054  -14800         1299.99993     2.271668e5     3.33592e8
-47500          -39035.807449  -14200         1299.99991     2.287121e5     3.20068e8
-47500          -39035.807449  -13800         1299.999874    2.390195e5     3.11052e8
-47500          -38535.348379  -4900          1299.667863    2.369459e5     1.10446e8
-47500          -38535.348379  -5100          1299.821625    2.592906e5     1.14954e8
-47500          -38034.889309  -5200          1299.832907    2.582565e5     1.17208e8
-47500          -37784.659774  -5400          1299.861315    2.589452e5     1.21716e8
-47500          -37784.659774  -4600          1299.239147    2.445864e5     1.03684e8
-47500          -37784.659774  -90000         1299.999998    1.275764e5     2.0286e9
-47500          -37284.200704  -5400          1299.860304    2.603354e5     1.21716e8
-47500          -37284.200704  -4600          1299.234666    2.394185e5     1.03684e8
-47500          -37284.200704  -90000         1299.999997    1.278215e5     2.0286e9
-47500          -37033.971169  -5200          1299.830339    2.586183e5     1.17208e8
-47500          -37033.971169  -4800          1299.516971    2.334601e5     1.08192e8
-47500          -37033.971169  -95000         1299.999999    1.289541e5     2.1413e9
-47500          -36533.5121    -5100          1299.815942    2.582097e5     1.14954e8
-47500          -36533.5121    -4900          1299.65871     2.342812e5     1.10446e8
-47500          -36533.5121    -4600          1299.232123    2.409915e5     1.03684e8
-47500          -36533.5121    -97500         1299.999999    1.29513e5      2.19765e9
-47500          -36033.05303   -5100          1299.816654    2.585795e5     1.14954e8
-47500          -36033.05303   -4900          1299.658872    2.355195e5     1.10446e8
-47500          -36033.05303   -4100          1298.516355    2.727077e5     9.2414e7
-47500          -36033.05303   -3900          1297.269751    3.029042e5     8.7906e7
-47500          -36033.05303   -97500         1299.999999    1.294238e5     2.19765e9
-47500          -35532.59396   -5200          1299.832262    2.597066e5     1.17208e8
-47500          -35532.59396   -4800          1299.515601    2.371677e5     1.08192e8
-47500          -35532.59396   -4600          1299.228734    2.431621e5     1.03684e8
-47500          -35532.59396   -4200          1298.654998    2.666966e5     9.4668e7
-47500          -35282.364425  -4600          1299.227886    2.437159e5     1.03684e8
-47500          -35282.364425  -4400          1298.940399    2.543607e5     9.9176e7
-47500          -35282.364425  -3600          1293.947437    3.528171e5     8.1144e7
-47500          -35282.364425  -90000         1299.999996    1.2743e5       2.0286e9
-47500          -35282.364425  -5400          1299.862304    2.617213e5     1.21716e8
-47500          -34781.905355  -4600          1299.229995    2.519713e5     1.03684e8
-47500          -34781.905355  -4400          1298.941054    2.648092e5     9.9176e7
-47500          -34781.905355  -90000         1299.999995    1.277107e5     2.0286e9
-47500          -34781.905355  -5400          1299.865802    2.618588e5     1.21716e8
-47500          -34781.905355  -3600          1293.953989    3.633434e5     8.1144e7
-47500          -34531.67582   -4800          1299.522726    2.449228e5     1.08192e8
-47500          -34531.67582   -95000         1299.999997    1.286576e5     2.1413e9
-47500          -34281.446285  -97500         1299.999999    1.291706e5     2.19765e9
-47500          -34031.21675   -5100          1299.835199    2.631559e5     1.14954e8
-47500          -34031.21675   -4900          1299.676028    2.470511e5     1.10446e8
-47500          -34031.21675   -4100          1298.510253    2.88138e5      9.2414e7
-47500          -34031.21675   -3900          1297.269546    3.123066e5     8.7906e7
-47500          -34031.21675   -1e5           1300           1.29726e5      2.254e9
-47500          -34031.21675   -97500         1299.999998    1.291141e5     2.19765e9
-47500          -34031.21675   -95000         1299.999997    1.285413e5     2.1413e9
-47500          -34031.21675   -92500         1299.999995    1.280109e5     2.08495e9
-47500          -33780.987215  -1e5           1300           1.296713e5     2.254e9
-47500          -33780.987215  -97500         1299.999998    1.290578e5     2.19765e9
-47500          -33780.987215  -95000         1299.999997    1.284832e5     2.1413e9
-47500          -33530.75768   -97500         1299.999998    1.290016e5     2.19765e9
-47500          -33530.75768   -1e5           1300           1.296168e5     2.254e9
-47500          -33530.75768   -95000         1299.999996    1.284253e5     2.1413e9
-47500          -33280.528145  -97500         1299.999998    1.289455e5     2.19765e9
-47500          -33030.298611  -97500         1299.999998    1.288895e5     2.19765e9
-47500          -33030.298611  -95000         1299.999996    1.283099e5     2.1413e9
-47500          -33030.298611  -80000         1299.999984    1.258531e5     1.8032e9
-47500          -33030.298611  -1e5           1300           1.295082e5     2.254e9
-47500          -33030.298611  -90000         1299.999992    1.272827e5     2.0286e9
-47500          -32780.069076  -90000         1299.999992    1.272221e5     2.0286e9
-47500          -32780.069076  -1e5           1300           1.29454e5      2.254e9
-47500          -32780.069076  -97500         1299.999998    1.288336e5     2.19765e9
-47500          -32780.069076  -95000         1299.999996    1.282524e5     2.1413e9
-47500          -32780.069076  -92500         1299.999994    1.27714e5      2.08495e9
-47500          -32780.069076  -80000         1299.999983    1.257875e5     1.8032e9
-47500          -32529.839541  -1e5           1300           1.294243e5     2.254e9
-47500          -32529.839541  -97500         1299.999998    1.288529e5     2.19765e9
-47500          -32529.839541  -95000         1299.999996    1.283232e5     2.1413e9
-47500          -32279.610006  -1e5           1300           1.293819e5     2.254e9
-47500          -32279.610006  -97500         1299.999998    1.288593e5     2.19765e9
-47500          -32279.610006  -95000         1299.999995    1.28381e5      2.1413e9
-47500          -32279.610006  -92500         1299.999993    1.279502e5     2.08495e9
-47500          -32279.610006  -90000         1299.99999     1.2757e5       2.0286e9
-47500          -32279.610006  -80000         1299.999981    1.266081e5     1.8032e9
-47500          -32029.380471  -80000         1299.99998     1.265303e5     1.8032e9
-47500          -32029.380471  -97500         1299.999997    1.287908e5     2.19765e9
-47500          -32029.380471  -95000         1299.999995    1.283107e5     2.1413e9
-47500          -32029.380471  -1e5           1300           1.293153e5     2.254e9
-47500          -32029.380471  -90000         1299.99999     1.274965e5     2.0286e9
-47500          -31779.150936  -1e5           1300           1.292487e5     2.254e9
-47500          -31779.150936  -92500         1299.999992    1.278064e5     2.08495e9
-47500          -31779.150936  -97500         1299.999997    1.287224e5     2.19765e9
-47500          -31528.921401  -1e5           1300           1.291822e5     2.254e9
-47500          -31528.921401  -97500         1299.999997    1.286541e5     2.19765e9
-47500          -31528.921401  -92500         1299.999991    1.277346e5     2.08495e9
-47500          -31528.921401  -95000         1299.999994    1.281704e5     2.1413e9
-47500          -31278.691866  -1e5           1300           1.291158e5     2.254e9
-47500          -31278.691866  -97500         1299.999997    1.285858e5     2.19765e9
-47500          -31278.691866  -95000         1299.999994    1.281003e5     2.1413e9
-47500          -31278.691866  -92500         1299.999991    1.276628e5     2.08495e9
-47500          -31028.462331  -1e5           1300           1.290495e5     2.254e9
-47500          -31028.462331  -97500         1299.999997    1.285176e5     2.19765e9
-47500          -31028.462331  -100           83.170398      2.090125e7     2.254e6
-47500          -31028.462331  -95000         1299.999993    1.280303e5     2.1413e9
-47500          -31028.462331  -200           166.340796     2.180282e7     4.508e6
-47500          -30778.232796  -100           83.092952      2.090125e7     2.254e6
-47500          -30778.232796  -97500         1299.999997    1.284495e5     2.19765e9
-47500          -30778.232796  -1e5           1300           1.289833e5     2.254e9
-47500          -30528.003261  -100           83.015505      2.090125e7     2.254e6
-47500          -30528.003261  -200           166.03101      2.180281e7     4.508e6
-47500          -30528.003261  0              0              1.999968e7     0
-47500          -30528.003261  -1e5           1300           1.289172e5     2.254e9
-47500          -30528.003261  -95000         1299.999993    1.278906e5     2.1413e9
-47500          -30528.003261  -80000         1299.999971    1.26064e5      1.8032e9
-47500          -30528.003261  -97500         1299.999996    1.283814e5     2.19765e9
-47500          -30528.003261  -90000         1299.999985    1.27057e5      2.0286e9
-47500          -30277.773726  -200           165.876117     2.180281e7     4.508e6
-47500          -30277.773726  -90000         1299.999985    1.26984e5      2.0286e9
-47500          -30277.773726  -80000         1299.999969    1.259865e5     1.8032e9
-47500          -30277.773726  -100           82.938058      2.090125e7     2.254e6